# vtk DataFile Version 2.0
Written using VisIt writer
ASCII
DATASET RECTILINEAR_GRID
DIMENSIONS 100 52 1
X_COORDINATES 100 float
  0.000000000000e+00   1.000000000000e+00   2.000000000000e+00   3.000000000000e+00   4.000000000000e+00   5.000000000000e+00   6.000000000000e+00   7.000000000000e+00   8.000000000000e+00 
  9.000000000000e+00   1.000000000000e+01   1.100000000000e+01   1.200000000000e+01   1.300000000000e+01   1.400000000000e+01   1.500000000000e+01   1.600000000000e+01   1.700000000000e+01 
  1.800000000000e+01   1.900000000000e+01   2.000000000000e+01   2.100000000000e+01   2.200000000000e+01   2.300000000000e+01   2.400000000000e+01   2.500000000000e+01   2.600000000000e+01 
  2.700000000000e+01   2.800000000000e+01   2.900000000000e+01   3.000000000000e+01   3.100000000000e+01   3.200000000000e+01   3.300000000000e+01   3.400000000000e+01   3.500000000000e+01 
  3.600000000000e+01   3.700000000000e+01   3.800000000000e+01   3.900000000000e+01   4.000000000000e+01   4.100000000000e+01   4.200000000000e+01   4.300000000000e+01   4.400000000000e+01 
  4.500000000000e+01   4.600000000000e+01   4.700000000000e+01   4.800000000000e+01   4.900000000000e+01   5.000000000000e+01   5.100000000000e+01   5.200000000000e+01   5.300000000000e+01 
  5.400000000000e+01   5.500000000000e+01   5.600000000000e+01   5.700000000000e+01   5.800000000000e+01   5.900000000000e+01   6.000000000000e+01   6.100000000000e+01   6.200000000000e+01 
  6.300000000000e+01   6.400000000000e+01   6.500000000000e+01   6.600000000000e+01   6.700000000000e+01   6.800000000000e+01   6.900000000000e+01   7.000000000000e+01   7.100000000000e+01 
  7.200000000000e+01   7.300000000000e+01   7.400000000000e+01   7.500000000000e+01   7.600000000000e+01   7.700000000000e+01   7.800000000000e+01   7.900000000000e+01   8.000000000000e+01 
  8.100000000000e+01   8.200000000000e+01   8.300000000000e+01   8.400000000000e+01   8.500000000000e+01   8.600000000000e+01   8.700000000000e+01   8.800000000000e+01   8.900000000000e+01 
  9.000000000000e+01   9.100000000000e+01   9.200000000000e+01   9.300000000000e+01   9.400000000000e+01   9.500000000000e+01   9.600000000000e+01   9.700000000000e+01   9.800000000000e+01 
  9.900000000000e+01 
Y_COORDINATES 52 float
  0.000000000000e+00   1.000000000000e+00   2.000000000000e+00   3.000000000000e+00   4.000000000000e+00   5.000000000000e+00   6.000000000000e+00   7.000000000000e+00   8.000000000000e+00 
  9.000000000000e+00   1.000000000000e+01   1.100000000000e+01   1.200000000000e+01   1.300000000000e+01   1.400000000000e+01   1.500000000000e+01   1.600000000000e+01   1.700000000000e+01 
  1.800000000000e+01   1.900000000000e+01   2.000000000000e+01   2.100000000000e+01   2.200000000000e+01   2.300000000000e+01   2.400000000000e+01   2.500000000000e+01   2.600000000000e+01 
  2.700000000000e+01   2.800000000000e+01   2.900000000000e+01   3.000000000000e+01   3.100000000000e+01   3.200000000000e+01   3.300000000000e+01   3.400000000000e+01   3.500000000000e+01 
  3.600000000000e+01   3.700000000000e+01   3.800000000000e+01   3.900000000000e+01   4.000000000000e+01   4.100000000000e+01   4.200000000000e+01   4.300000000000e+01   4.400000000000e+01 
  4.500000000000e+01   4.600000000000e+01   4.700000000000e+01   4.800000000000e+01   4.900000000000e+01   5.000000000000e+01   5.100000000000e+01 
Z_COORDINATES 1 float
  0.000000000000e+00 
CELL_DATA 5049
POINT_DATA 5200
SCALARS Temperature float
LOOKUP_TABLE default
  2.699383258820e+00   2.694452524185e+00   2.684610366821e+00   2.669895887375e+00   2.650367021561e+00   2.626101016998e+00   2.597193241119e+00   2.563758134842e+00   2.525927543640e+00 
  2.483850717545e+00   2.437693834305e+00   2.387638807297e+00   2.333883523941e+00   2.276639938354e+00   2.216133832932e+00   2.152604341507e+00   2.086301803589e+00   2.017488241196e+00 
  1.946434855461e+00   1.873422384262e+00   1.798738837242e+00   1.722679018974e+00   1.645543098450e+00   1.567635416985e+00   1.489263415337e+00   1.410736560822e+00   1.332364559174e+00 
  1.254456877708e+00   1.177320957184e+00   1.101261138916e+00   1.026577591896e+00   9.535651206970e-01   8.825118541718e-01   8.136982321739e-01   7.473957538605e-01   6.838662028313e-01 
  6.233601570129e-01   5.661165118217e-01   5.123611688614e-01   4.623062312603e-01   4.161492884159e-01   3.740724623203e-01   3.362418413162e-01   3.028067052364e-01   2.738990485668e-01 
  2.496328949928e-01   2.301040440798e-01   2.153895795345e-01   2.055475413799e-01   2.006168067455e-01   2.006168067455e-01   2.055475413799e-01   2.153895795345e-01   2.301040440798e-01 
  2.496328949928e-01   2.738990485668e-01   3.028067052364e-01   3.362418413162e-01   3.740724623203e-01   4.161492884159e-01   4.623062312603e-01   5.123611688614e-01   5.661165118217e-01 
  6.233601570129e-01   6.838662028313e-01   7.473957538605e-01   8.136982321739e-01   8.825118541718e-01   9.535651206970e-01   1.026577591896e+00   1.101261138916e+00   1.177320957184e+00 
  1.254456877708e+00   1.332364559174e+00   1.410736560822e+00   1.489263415337e+00   1.567635416985e+00   1.645543098450e+00   1.722679018974e+00   1.798738837242e+00   1.873422384262e+00 
  1.946434855461e+00   2.017488241196e+00   2.086301803589e+00   2.152604341507e+00   2.216133832932e+00   2.276639938354e+00   2.333883523941e+00   2.387638807297e+00   2.437693834305e+00 
  2.483850717545e+00   2.525927543640e+00   2.563758134842e+00   2.597193241119e+00   2.626101016998e+00   2.650367021561e+00   2.669895887375e+00   2.684610366821e+00   2.694452524185e+00 
  2.699383258820e+00   2.663325548172e+00   2.658765077591e+00   2.649662494659e+00   2.636055707932e+00   2.618000268936e+00   2.595570325851e+00   2.568858623505e+00   2.537974834442e+00 
  2.503046751022e+00   2.464218139648e+00   2.421650171280e+00   2.375519275665e+00   2.326017379761e+00   2.273350477219e+00   2.217739343643e+00   2.159417390823e+00   2.098630428314e+00 
  2.035635948181e+00   1.970702171326e+00   1.904107570648e+00   1.836139321327e+00   1.767093062401e+00   1.697271704674e+00   1.626984715462e+00   1.556546926498e+00   1.486277699471e+00 
  1.416500210762e+00   1.347539663315e+00   1.279722929001e+00   1.213376164436e+00   1.148823857307e+00   1.086385846138e+00   1.026375293732e+00   9.690945148468e-01   9.148307442665e-01 
  8.638501167297e-01   8.163909912109e-01   7.726554870605e-01   7.328006029129e-01   6.969294548035e-01   6.650831103325e-01   6.372357010841e-01   6.132938861847e-01   5.931018590927e-01 
  5.764533281326e-01   5.631088614464e-01   5.528181195259e-01   5.453435778618e-01   5.404836535454e-01   5.380920767784e-01   5.380920767784e-01   5.404836535454e-01   5.453435778618e-01 
  5.528181195259e-01   5.631088614464e-01   5.764533281326e-01   5.931018590927e-01   6.132938861847e-01   6.372357010841e-01   6.650831103325e-01   6.969294548035e-01   7.328006029129e-01 
  7.726554870605e-01   8.163909912109e-01   8.638501167297e-01   9.148307442665e-01   9.690945148468e-01   1.026375293732e+00   1.086385846138e+00   1.148823857307e+00   1.213376164436e+00 
  1.279722929001e+00   1.347539663315e+00   1.416500210762e+00   1.486277699471e+00   1.556546926498e+00   1.626984715462e+00   1.697271704674e+00   1.767093062401e+00   1.836139321327e+00 
  1.904107570648e+00   1.970702171326e+00   2.035635948181e+00   2.098630428314e+00   2.159417390823e+00   2.217739343643e+00   2.273350477219e+00   2.326017379761e+00   2.375519275665e+00 
  2.421650171280e+00   2.464218139648e+00   2.503046751022e+00   2.537974834442e+00   2.568858623505e+00   2.595570325851e+00   2.618000268936e+00   2.636055707932e+00   2.649662494659e+00 
  2.658765077591e+00   2.663325548172e+00   2.631389141083e+00   2.627172708511e+00   2.618757963181e+00   2.606180429459e+00   2.589493989944e+00   2.568769693375e+00   2.544095754623e+00 
  2.515578269958e+00   2.483339071274e+00   2.447516918182e+00   2.408266067505e+00   2.365756273270e+00   2.320172071457e+00   2.271712541580e+00   2.220589399338e+00   2.167028427124e+00 
  2.111266613007e+00   2.053552865982e+00   1.994146585464e+00   1.933317303658e+00   1.871343135834e+00   1.808510303497e+00   1.745112061501e+00   1.681447863579e+00   1.617821574211e+00 
  1.554540872574e+00   1.491915106773e+00   1.430254340172e+00   1.369866251945e+00   1.311054587364e+00   1.254116058350e+00   1.199336409569e+00   1.146986961365e+00   1.097319602966e+00 
  1.050561428070e+00   1.006909012794e+00   9.665223956108e-01   9.295197725296e-01   8.959720730782e-01   8.659003376961e-01   8.392746448517e-01   8.160160779953e-01   7.960023283958e-01 
  7.790760993958e-01   7.650566101074e-01   7.537529468536e-01   7.449780702591e-01   7.385630607605e-01   7.343689799309e-01   7.322974801064e-01   7.322974801064e-01   7.343689799309e-01 
  7.385630607605e-01   7.449780702591e-01   7.537529468536e-01   7.650566101074e-01   7.790760993958e-01   7.960023283958e-01   8.160160779953e-01   8.392746448517e-01   8.659003376961e-01 
  8.959720730782e-01   9.295197725296e-01   9.665223956108e-01   1.006909012794e+00   1.050561428070e+00   1.097319602966e+00   1.146986961365e+00   1.199336409569e+00   1.254116058350e+00 
  1.311054587364e+00   1.369866251945e+00   1.430254340172e+00   1.491915106773e+00   1.554540872574e+00   1.617821574211e+00   1.681447863579e+00   1.745112061501e+00   1.808510303497e+00 
  1.871343135834e+00   1.933317303658e+00   1.994146585464e+00   2.053552865982e+00   2.111266613007e+00   2.167028427124e+00   2.220589399338e+00   2.271712541580e+00   2.320172071457e+00 
  2.365756273270e+00   2.408266067505e+00   2.447516918182e+00   2.483339071274e+00   2.515578269958e+00   2.544095754623e+00   2.568769693375e+00   2.589493989944e+00   2.606180429459e+00 
  2.618757963181e+00   2.627172708511e+00   2.631389141083e+00   2.603322029114e+00   2.599425554276e+00   2.591649532318e+00   2.580028057098e+00   2.564612388611e+00   2.545470476151e+00 
  2.522686719894e+00   2.496361732483e+00   2.466612339020e+00   2.433570384979e+00   2.397383928299e+00   2.358214378357e+00   2.316238164902e+00   2.271645069122e+00   2.224637508392e+00 
  2.175431013107e+00   2.124251604080e+00   2.071336746216e+00   2.016933679581e+00   1.961298584938e+00   1.904696226120e+00   1.847397804260e+00   1.789680719376e+00   1.731827020645e+00 
  1.674121856689e+00   1.616851806641e+00   1.560303211212e+00   1.504759788513e+00   1.450500488281e+00   1.397796392441e+00   1.346907615662e+00   1.298079729080e+00   1.251539945602e+00 
  1.207492828369e+00   1.166115760803e+00   1.127555251122e+00   1.091922879219e+00   1.059292197227e+00   1.029697299004e+00   1.003132581711e+00   9.795541763306e-01   9.588837027550e-01 
  9.410141706467e-01   9.258170127869e-01   9.131512045860e-01   9.028722643852e-01   8.948423266411e-01   8.889384865761e-01   8.850613832474e-01   8.831408619881e-01   8.831408619881e-01 
  8.850613832474e-01   8.889384865761e-01   8.948423266411e-01   9.028722643852e-01   9.131512045860e-01   9.258170127869e-01   9.410141706467e-01   9.588837027550e-01   9.795541763306e-01 
  1.003132581711e+00   1.029697299004e+00   1.059292197227e+00   1.091922879219e+00   1.127555251122e+00   1.166115760803e+00   1.207492828369e+00   1.251539945602e+00   1.298079729080e+00 
  1.346907615662e+00   1.397796392441e+00   1.450500488281e+00   1.504759788513e+00   1.560303211212e+00   1.616851806641e+00   1.674121856689e+00   1.731827020645e+00   1.789680719376e+00 
  1.847397804260e+00   1.904696226120e+00   1.961298584938e+00   2.016933679581e+00   2.071336746216e+00   2.124251604080e+00   2.175431013107e+00   2.224637508392e+00   2.271645069122e+00 
  2.316238164902e+00   2.358214378357e+00   2.397383928299e+00   2.433570384979e+00   2.466612339020e+00   2.496361732483e+00   2.522686719894e+00   2.545470476151e+00   2.564612388611e+00 
  2.580028057098e+00   2.591649532318e+00   2.599425554276e+00   2.603322029114e+00   2.578882694244e+00   2.575283050537e+00   2.568099737167e+00   2.557365655899e+00   2.543128967285e+00 
  2.525454044342e+00   2.504421710968e+00   2.480127096176e+00   2.452681064606e+00   2.422209262848e+00   2.388851642609e+00   2.352761745453e+00   2.314106941223e+00   2.273067235947e+00 
  2.229834556580e+00   2.184612274170e+00   2.137614727020e+00   2.089066267014e+00   2.039199829102e+00   1.988256573677e+00   1.936485052109e+00   1.884139060974e+00   1.831477284431e+00 
  1.778761386871e+00   1.726254582405e+00   1.674219846725e+00   1.622917532921e+00   1.572603821754e+00   1.523527622223e+00   1.475927710533e+00   1.430030584335e+00   1.386046171188e+00 
  1.344165325165e+00   1.304556250572e+00   1.267361402512e+00   1.232694745064e+00   1.200639605522e+00   1.171247363091e+00   1.144537210464e+00   1.120497107506e+00   1.099086284637e+00 
  1.080238699913e+00   1.063868284225e+00   1.049874424934e+00   1.038148880005e+00   1.028582572937e+00   1.021072268486e+00   1.015526890755e+00   1.011873126030e+00   1.010059475899e+00 
  1.010059475899e+00   1.011873126030e+00   1.015526890755e+00   1.021072268486e+00   1.028582572937e+00   1.038148880005e+00   1.049874424934e+00   1.063868284225e+00   1.080238699913e+00 
  1.099086284637e+00   1.120497107506e+00   1.144537210464e+00   1.171247363091e+00   1.200639605522e+00   1.232694745064e+00   1.267361402512e+00   1.304556250572e+00   1.344165325165e+00 
  1.386046171188e+00   1.430030584335e+00   1.475927710533e+00   1.523527622223e+00   1.572603821754e+00   1.622917532921e+00   1.674219846725e+00   1.726254582405e+00   1.778761386871e+00 
  1.831477284431e+00   1.884139060974e+00   1.936485052109e+00   1.988256573677e+00   2.039199829102e+00   2.089066267014e+00   2.137614727020e+00   2.184612274170e+00   2.229834556580e+00 
  2.273067235947e+00   2.314106941223e+00   2.352761745453e+00   2.388851642609e+00   2.422209262848e+00   2.452681064606e+00   2.480127096176e+00   2.504421710968e+00   2.525454044342e+00 
  2.543128967285e+00   2.557365655899e+00   2.568099737167e+00   2.575283050537e+00   2.578882694244e+00   2.557838916779e+00   2.554514646530e+00   2.547881126404e+00   2.537969350815e+00 
  2.524825334549e+00   2.508509874344e+00   2.489099025726e+00   2.466683149338e+00   2.441366910934e+00   2.413269281387e+00   2.382522106171e+00   2.349271059036e+00   2.313673257828e+00 
  2.275898694992e+00   2.236128091812e+00   2.194553136826e+00   2.151375055313e+00   2.106803894043e+00   2.061057806015e+00   2.014362335205e+00   1.966948151588e+00   1.919051289558e+00 
  1.870910644531e+00   1.822766900063e+00   1.774860978127e+00   1.727432131767e+00   1.680715560913e+00   1.634940981865e+00   1.590329527855e+00   1.547091603279e+00   1.505424499512e+00 
  1.465509057045e+00   1.427507638931e+00   1.391561508179e+00   1.357788681984e+00   1.326282024384e+00   1.297108292580e+00   1.270307421684e+00   1.245893597603e+00   1.223856210709e+00 
  1.204162240028e+00   1.186759710312e+00   1.171581506729e+00   1.158550500870e+00   1.147583961487e+00   1.138599276543e+00   1.131518721581e+00   1.126273632050e+00   1.122809171677e+00 
  1.121086835861e+00   1.121086835861e+00   1.122809171677e+00   1.126273632050e+00   1.131518721581e+00   1.138599276543e+00   1.147583961487e+00   1.158550500870e+00   1.171581506729e+00 
  1.186759710312e+00   1.204162240028e+00   1.223856210709e+00   1.245893597603e+00   1.270307421684e+00   1.297108292580e+00   1.326282024384e+00   1.357788681984e+00   1.391561508179e+00 
  1.427507638931e+00   1.465509057045e+00   1.505424499512e+00   1.547091603279e+00   1.590329527855e+00   1.634940981865e+00   1.680715560913e+00   1.727432131767e+00   1.774860978127e+00 
  1.822766900063e+00   1.870910644531e+00   1.919051289558e+00   1.966948151588e+00   2.014362335205e+00   2.061057806015e+00   2.106803894043e+00   2.151375055313e+00   2.194553136826e+00 
  2.236128091812e+00   2.275898694992e+00   2.313673257828e+00   2.349271059036e+00   2.382522106171e+00   2.413269281387e+00   2.441366910934e+00   2.466683149338e+00   2.489099025726e+00 
  2.508509874344e+00   2.524825334549e+00   2.537969350815e+00   2.547881126404e+00   2.554514646530e+00   2.557838916779e+00   2.539968490601e+00   2.536899328232e+00   2.530775308609e+00 
  2.521625518799e+00   2.509493350983e+00   2.494436264038e+00   2.476526021957e+00   2.455847263336e+00   2.432499408722e+00   2.406593561172e+00   2.378254413605e+00   2.347618341446e+00 
  2.314833641052e+00   2.280059576035e+00   2.243465185165e+00   2.205230236053e+00   2.165542602539e+00   2.124598264694e+00   2.082600355148e+00   2.039757966995e+00   1.996284842491e+00 
  1.952398538589e+00   1.908318758011e+00   1.864265680313e+00   1.820459008217e+00   1.777115106583e+00   1.734446406364e+00   1.692658305168e+00   1.651947617531e+00   1.612500190735e+00 
  1.574488759041e+00   1.538070797920e+00   1.503386735916e+00   1.470557451248e+00   1.439683437347e+00   1.410843729973e+00   1.384094834328e+00   1.359471440315e+00   1.336986660957e+00 
  1.316633939743e+00   1.298388838768e+00   1.282212257385e+00   1.268053412437e+00   1.255853652954e+00   1.245550155640e+00   1.237080454826e+00   1.230385661125e+00   1.225413799286e+00 
  1.222123742104e+00   1.220486044884e+00   1.220486044884e+00   1.222123742104e+00   1.225413799286e+00   1.230385661125e+00   1.237080454826e+00   1.245550155640e+00   1.255853652954e+00 
  1.268053412437e+00   1.282212257385e+00   1.298388838768e+00   1.316633939743e+00   1.336986660957e+00   1.359471440315e+00   1.384094834328e+00   1.410843729973e+00   1.439683437347e+00 
  1.470557451248e+00   1.503386735916e+00   1.538070797920e+00   1.574488759041e+00   1.612500190735e+00   1.651947617531e+00   1.692658305168e+00   1.734446406364e+00   1.777115106583e+00 
  1.820459008217e+00   1.864265680313e+00   1.908318758011e+00   1.952398538589e+00   1.996284842491e+00   2.039757966995e+00   2.082600355148e+00   2.124598264694e+00   2.165542602539e+00 
  2.205230236053e+00   2.243465185165e+00   2.280059576035e+00   2.314833641052e+00   2.347618341446e+00   2.378254413605e+00   2.406593561172e+00   2.432499408722e+00   2.455847263336e+00 
  2.476526021957e+00   2.494436264038e+00   2.509493350983e+00   2.521625518799e+00   2.530775308609e+00   2.536899328232e+00   2.539968490601e+00   2.525058746338e+00   2.522225856781e+00 
  2.516573429108e+00   2.508129119873e+00   2.496933698654e+00   2.483040571213e+00   2.466517686844e+00   2.447444677353e+00   2.425914287567e+00   2.402031183243e+00   2.375912189484e+00 
  2.347685098648e+00   2.317488431931e+00   2.285471200943e+00   2.251791477203e+00   2.216616392136e+00   2.180120706558e+00   2.142487049103e+00   2.103903055191e+00   2.064562082291e+00 
  2.024661779404e+00   1.984401464462e+00   1.943982481956e+00   1.903606176376e+00   1.863471627235e+00   1.823775291443e+00   1.784707903862e+00   1.746454000473e+00   1.709188938141e+00 
  1.673077583313e+00   1.638272762299e+00   1.604912638664e+00   1.573120236397e+00   1.543001174927e+00   1.514643311501e+00   1.488115906715e+00   1.463469147682e+00   1.440735101700e+00 
  1.419927835464e+00   1.401045441628e+00   1.384071707726e+00   1.368978381157e+00   1.355727910995e+00   1.344276428223e+00   1.334576964378e+00   1.326582074165e+00   1.320247411728e+00 
  1.315533757210e+00   1.312409877777e+00   1.310853481293e+00   1.310853481293e+00   1.312409877777e+00   1.315533757210e+00   1.320247411728e+00   1.326582074165e+00   1.334576964378e+00 
  1.344276428223e+00   1.355727910995e+00   1.368978381157e+00   1.384071707726e+00   1.401045441628e+00   1.419927835464e+00   1.440735101700e+00   1.463469147682e+00   1.488115906715e+00 
  1.514643311501e+00   1.543001174927e+00   1.573120236397e+00   1.604912638664e+00   1.638272762299e+00   1.673077583313e+00   1.709188938141e+00   1.746454000473e+00   1.784707903862e+00 
  1.823775291443e+00   1.863471627235e+00   1.903606176376e+00   1.943982481956e+00   1.984401464462e+00   2.024661779404e+00   2.064562082291e+00   2.103903055191e+00   2.142487049103e+00 
  2.180120706558e+00   2.216616392136e+00   2.251791477203e+00   2.285471200943e+00   2.317488431931e+00   2.347685098648e+00   2.375912189484e+00   2.402031183243e+00   2.425914287567e+00 
  2.447444677353e+00   2.466517686844e+00   2.483040571213e+00   2.496933698654e+00   2.508129119873e+00   2.516573429108e+00   2.522225856781e+00   2.525058746338e+00   2.512907028198e+00 
  2.510292768478e+00   2.505077123642e+00   2.497285366058e+00   2.486955642700e+00   2.474139213562e+00   2.458898305893e+00   2.441308259964e+00   2.421455621719e+00   2.399438619614e+00 
  2.375365734100e+00   2.349356889725e+00   2.321541070938e+00   2.292057037354e+00   2.261051893234e+00   2.228681087494e+00   2.195106744766e+00   2.160497426987e+00   2.125026941299e+00 
  2.088873624802e+00   2.052218437195e+00   2.015244960785e+00   1.978137135506e+00   1.941077947617e+00   1.904248714447e+00   1.867826819420e+00   1.831984639168e+00   1.796887516975e+00 
  1.762692689896e+00   1.729547381401e+00   1.697587132454e+00   1.666934967041e+00   1.637699604034e+00   1.609975099564e+00   1.583839654922e+00   1.559355378151e+00   1.536568641663e+00 
  1.515509963036e+00   1.496195316315e+00   1.478627443314e+00   1.462796807289e+00   1.448684334755e+00   1.436263322830e+00   1.425501585007e+00   1.416364312172e+00   1.408816218376e+00 
  1.402823925018e+00   1.398357868195e+00   1.395394444466e+00   1.393917083740e+00   1.393917083740e+00   1.395394444466e+00   1.398357868195e+00   1.402823925018e+00   1.408816218376e+00 
  1.416364312172e+00   1.425501585007e+00   1.436263322830e+00   1.448684334755e+00   1.462796807289e+00   1.478627443314e+00   1.496195316315e+00   1.515509963036e+00   1.536568641663e+00 
  1.559355378151e+00   1.583839654922e+00   1.609975099564e+00   1.637699604034e+00   1.666934967041e+00   1.697587132454e+00   1.729547381401e+00   1.762692689896e+00   1.796887516975e+00 
  1.831984639168e+00   1.867826819420e+00   1.904248714447e+00   1.941077947617e+00   1.978137135506e+00   2.015244960785e+00   2.052218437195e+00   2.088873624802e+00   2.125026941299e+00 
  2.160497426987e+00   2.195106744766e+00   2.228681087494e+00   2.261051893234e+00   2.292057037354e+00   2.321541070938e+00   2.349356889725e+00   2.375365734100e+00   2.399438619614e+00 
  2.421455621719e+00   2.441308259964e+00   2.458898305893e+00   2.474139213562e+00   2.486955642700e+00   2.497285366058e+00   2.505077123642e+00   2.510292768478e+00   2.512907028198e+00 
  2.503320693970e+00   2.500908613205e+00   2.496096372604e+00   2.488908052444e+00   2.479378938675e+00   2.467556953430e+00   2.453500270844e+00   2.437279224396e+00   2.418974637985e+00 
  2.398678064346e+00   2.376490831375e+00   2.352524280548e+00   2.326898336411e+00   2.299742221832e+00   2.271192312241e+00   2.241392612457e+00   2.210492849350e+00   2.178649187088e+00 
  2.146021604538e+00   2.112773895264e+00   2.079072713852e+00   2.045085430145e+00   2.010980367661e+00   1.976924180984e+00   1.943081378937e+00   1.909612894058e+00   1.876674175262e+00 
  1.844414353371e+00   1.812974691391e+00   1.782486915588e+00   1.753072857857e+00   1.724842429161e+00   1.697893142700e+00   1.672309398651e+00   1.648162126541e+00   1.625508189201e+00 
  1.604391098022e+00   1.584840774536e+00   1.566875219345e+00   1.550500750542e+00   1.535714030266e+00   1.522503376007e+00   1.510850667953e+00   1.500733017921e+00   1.492125391960e+00 
  1.485001683235e+00   1.479337215424e+00   1.475109934807e+00   1.472302317619e+00   1.470901608467e+00   1.470901608467e+00   1.472302317619e+00   1.475109934807e+00   1.479337215424e+00 
  1.485001683235e+00   1.492125391960e+00   1.500733017921e+00   1.510850667953e+00   1.522503376007e+00   1.535714030266e+00   1.550500750542e+00   1.566875219345e+00   1.584840774536e+00 
  1.604391098022e+00   1.625508189201e+00   1.648162126541e+00   1.672309398651e+00   1.697893142700e+00   1.724842429161e+00   1.753072857857e+00   1.782486915588e+00   1.812974691391e+00 
  1.844414353371e+00   1.876674175262e+00   1.909612894058e+00   1.943081378937e+00   1.976924180984e+00   2.010980367661e+00   2.045085430145e+00   2.079072713852e+00   2.112773895264e+00 
  2.146021604538e+00   2.178649187088e+00   2.210492849350e+00   2.241392612457e+00   2.271192312241e+00   2.299742221832e+00   2.326898336411e+00   2.352524280548e+00   2.376490831375e+00 
  2.398678064346e+00   2.418974637985e+00   2.437279224396e+00   2.453500270844e+00   2.467556953430e+00   2.479378938675e+00   2.488908052444e+00   2.496096372604e+00   2.500908613205e+00 
  2.503320693970e+00   2.496116399765e+00   2.493891239166e+00   2.489452123642e+00   2.482820987701e+00   2.474031686783e+00   2.463127851486e+00   2.450164556503e+00   2.435206890106e+00 
  2.418330192566e+00   2.399619340897e+00   2.379169225693e+00   2.357082366943e+00   2.333471059799e+00   2.308454275131e+00   2.282158613205e+00   2.254716873169e+00   2.226268053055e+00 
  2.196955204010e+00   2.166926145554e+00   2.136331081390e+00   2.105322599411e+00   2.074054002762e+00   2.042678833008e+00   2.011349201202e+00   1.980214118958e+00   1.949419736862e+00 
  1.919106721878e+00   1.889409899712e+00   1.860456466675e+00   1.832365512848e+00   1.805246472359e+00   1.779198646545e+00   1.754310131073e+00   1.730657696724e+00   1.708306074142e+00 
  1.687308430672e+00   1.667705655098e+00   1.649527907372e+00   1.632794618607e+00   1.617515325546e+00   1.603691697121e+00   1.591318011284e+00   1.580382943153e+00   1.570871114731e+00 
  1.562765121460e+00   1.556046247482e+00   1.550696492195e+00   1.546699881554e+00   1.544043064117e+00   1.542717099190e+00   1.542717099190e+00   1.544043064117e+00   1.546699881554e+00 
  1.550696492195e+00   1.556046247482e+00   1.562765121460e+00   1.570871114731e+00   1.580382943153e+00   1.591318011284e+00   1.603691697121e+00   1.617515325546e+00   1.632794618607e+00 
  1.649527907372e+00   1.667705655098e+00   1.687308430672e+00   1.708306074142e+00   1.730657696724e+00   1.754310131073e+00   1.779198646545e+00   1.805246472359e+00   1.832365512848e+00 
  1.860456466675e+00   1.889409899712e+00   1.919106721878e+00   1.949419736862e+00   1.980214118958e+00   2.011349201202e+00   2.042678833008e+00   2.074054002762e+00   2.105322599411e+00 
  2.136331081390e+00   2.166926145554e+00   2.196955204010e+00   2.226268053055e+00   2.254716873169e+00   2.282158613205e+00   2.308454275131e+00   2.333471059799e+00   2.357082366943e+00 
  2.379169225693e+00   2.399619340897e+00   2.418330192566e+00   2.435206890106e+00   2.450164556503e+00   2.463127851486e+00   2.474031686783e+00   2.482820987701e+00   2.489452123642e+00 
  2.493891239166e+00   2.496116399765e+00   2.491121053696e+00   2.489068508148e+00   2.484973669052e+00   2.478857755661e+00   2.470751047134e+00   2.460695028305e+00   2.448740482330e+00 
  2.434948205948e+00   2.419388055801e+00   2.402138710022e+00   2.383288145065e+00   2.362931966782e+00   2.341173410416e+00   2.318123102188e+00   2.293897628784e+00   2.268620014191e+00 
  2.242417812347e+00   2.215423107147e+00   2.187771320343e+00   2.159600734711e+00   2.131051063538e+00   2.102262258530e+00   2.073374271393e+00   2.044526100159e+00   2.015853166580e+00 
  1.987488150597e+00   1.959558606148e+00   1.932186722755e+00   1.905487775803e+00   1.879569292068e+00   1.854530572891e+00   1.830461859703e+00   1.807443261147e+00   1.785545110703e+00 
  1.764827251434e+00   1.745339274406e+00   1.727120757103e+00   1.710201501846e+00   1.694602012634e+00   1.680335044861e+00   1.667405843735e+00   1.655813336372e+00   1.645552039146e+00 
  1.636612415314e+00   1.628982901573e+00   1.622650623322e+00   1.617603063583e+00   1.613828778267e+00   1.611318111420e+00   1.610064506531e+00   1.610064506531e+00   1.611318111420e+00 
  1.613828778267e+00   1.617603063583e+00   1.622650623322e+00   1.628982901573e+00   1.636612415314e+00   1.645552039146e+00   1.655813336372e+00   1.667405843735e+00   1.680335044861e+00 
  1.694602012634e+00   1.710201501846e+00   1.727120757103e+00   1.745339274406e+00   1.764827251434e+00   1.785545110703e+00   1.807443261147e+00   1.830461859703e+00   1.854530572891e+00 
  1.879569292068e+00   1.905487775803e+00   1.932186722755e+00   1.959558606148e+00   1.987488150597e+00   2.015853166580e+00   2.044526100159e+00   2.073374271393e+00   2.102262258530e+00 
  2.131051063538e+00   2.159600734711e+00   2.187771320343e+00   2.215423107147e+00   2.242417812347e+00   2.268620014191e+00   2.293897628784e+00   2.318123102188e+00   2.341173410416e+00 
  2.362931966782e+00   2.383288145065e+00   2.402138710022e+00   2.419388055801e+00   2.434948205948e+00   2.448740482330e+00   2.460695028305e+00   2.470751047134e+00   2.478857755661e+00 
  2.484973669052e+00   2.489068508148e+00   2.491121053696e+00   2.488170623779e+00   2.486277341843e+00   2.482500791550e+00   2.476859807968e+00   2.469383478165e+00   2.460109710693e+00 
  2.449085950851e+00   2.436368227005e+00   2.422021627426e+00   2.406119108200e+00   2.388741731644e+00   2.369978427887e+00   2.349924325943e+00   2.328681468964e+00   2.306358098984e+00 
  2.283066749573e+00   2.258925437927e+00   2.234055519104e+00   2.208581209183e+00   2.182629346848e+00   2.156327486038e+00   2.129804134369e+00   2.103186845779e+00   2.076602220535e+00 
  2.050173759460e+00   2.024021863937e+00   1.998263001442e+00   1.973007559776e+00   1.948360681534e+00   1.924419879913e+00   1.901275753975e+00   1.879010200500e+00   1.857697129250e+00 
  1.837401032448e+00   1.818177819252e+00   1.800073981285e+00   1.783127665520e+00   1.767368555069e+00   1.752818107605e+00   1.739491224289e+00   1.727396130562e+00   1.716535806656e+00 
  1.706908822060e+00   1.698510527611e+00   1.691334009171e+00   1.685371160507e+00   1.680613398552e+00   1.677052974701e+00   1.674683213234e+00   1.673499703407e+00   1.673499703407e+00 